<?xml version="1.0" encoding="UTF-8"?>

<!-- generated on 2025-11-12 14:27:19 by Eclipse SUMO GUI Version 1.15.0
<configuration xmlns:xsi="http://www.w3.org/2001/XMLSchema-instance" xsi:noNamespaceSchemaLocation="http://sumo.dlr.de/xsd/sumoConfiguration.xsd">

    <input>
        <net-file value="scott.net.xml"/>
        <route-files value="demand.3.rou.xml"/>
    </input>

    <output>
        <fcd-output value="fcd_3.output.xml"/>
        <fcd-output.signals value="True"/>
        <fcd-output.acceleration value="True"/>
        <tripinfo-output value="tripinfo.xml"/>
    </output>

    <time>
        <step-length value="0.1"/>
    </time>

    <processing>
        <lateral-resolution value="-1"/>
        <ignore-route-errors value="true"/>
    </processing>

    <routing>
        <device.rerouting.adaptation-steps value="18"/>
        <device.rerouting.adaptation-interval value="10"/>
    </routing>

    <report>
        <verbose value="true"/>
        <duration-log.statistics value="true"/>
        <no-step-log value="true"/>
    </report>

    <traci_server>
        <remote-port value="11574"/>
    </traci_server>

    <gui_only>
        <quit-on-end value="true"/>
    </gui_only>

</configuration>
-->

<fcd-export xmlns:xsi="http://www.w3.org/2001/XMLSchema-instance" xsi:noNamespaceSchemaLocation="http://sumo.dlr.de/xsd/fcd_file.xsd">
    <timestep time="0.00"/>
    <timestep time="0.10"/>
    <timestep time="0.20"/>
    <timestep time="0.30"/>
    <timestep time="0.40"/>
    <timestep time="0.50"/>
    <timestep time="0.60"/>
    <timestep time="0.70"/>
    <timestep time="0.80"/>
    <timestep time="0.90"/>
    <timestep time="1.00"/>
    <timestep time="1.10"/>
    <timestep time="1.20"/>
    <timestep time="1.30"/>
    <timestep time="1.40"/>
    <timestep time="1.50"/>
    <timestep time="1.60"/>
    <timestep time="1.70"/>
    <timestep time="1.80"/>
    <timestep time="1.90"/>
    <timestep time="2.00"/>
    <timestep time="2.10"/>
    <timestep time="2.20"/>
    <timestep time="2.30"/>
    <timestep time="2.40"/>
    <timestep time="2.50"/>
    <timestep time="2.60"/>
    <timestep time="2.70"/>
    <timestep time="2.80"/>
    <timestep time="2.90"/>
    <timestep time="3.00"/>
    <timestep time="3.10"/>
    <timestep time="3.20"/>
    <timestep time="3.30"/>
    <timestep time="3.40"/>
    <timestep time="3.50"/>
    <timestep time="3.60"/>
    <timestep time="3.70"/>
    <timestep time="3.80"/>
    <timestep time="3.90"/>
    <timestep time="4.00"/>
    <timestep time="4.10"/>
    <timestep time="4.20"/>
    <timestep time="4.30"/>
    <timestep time="4.40"/>
    <timestep time="4.50"/>
    <timestep time="4.60"/>
    <timestep time="4.70"/>
    <timestep time="4.80"/>
    <timestep time="4.90"/>
    <timestep time="5.00"/>
    <timestep time="5.10"/>
    <timestep time="5.20"/>
    <timestep time="5.30"/>
    <timestep time="5.40"/>
    <timestep time="5.50"/>
    <timestep time="5.60"/>
    <timestep time="5.70"/>
    <timestep time="5.80"/>
    <timestep time="5.90"/>
    <timestep time="6.00"/>
    <timestep time="6.10"/>
    <timestep time="6.20"/>
    <timestep time="6.30"/>
    <timestep time="6.40"/>
    <timestep time="6.50"/>
    <timestep time="6.60"/>
    <timestep time="6.70"/>
    <timestep time="6.80"/>
    <timestep time="6.90"/>
    <timestep time="7.00"/>
    <timestep time="7.10"/>
    <timestep time="7.20"/>
    <timestep time="7.30"/>
    <timestep time="7.40"/>
    <timestep time="7.50"/>
    <timestep time="7.60"/>
    <timestep time="7.70"/>
    <timestep time="7.80"/>
    <timestep time="7.90"/>
    <timestep time="8.00"/>
    <timestep time="8.10"/>
    <timestep time="8.20"/>
    <timestep time="8.30"/>
    <timestep time="8.40"/>
    <timestep time="8.50"/>
    <timestep time="8.60"/>
    <timestep time="8.70"/>
    <timestep time="8.80"/>
    <timestep time="8.90"/>
    <timestep time="9.00"/>
    <timestep time="9.10"/>
    <timestep time="9.20"/>
    <timestep time="9.30"/>
    <timestep time="9.40"/>
    <timestep time="9.50"/>
    <timestep time="9.60"/>
    <timestep time="9.70"/>
    <timestep time="9.80"/>
    <timestep time="9.90"/>
    <timestep time="10.00"/>
    <timestep time="10.10"/>
    <timestep time="10.20"/>
    <timestep time="10.30"/>
    <timestep time="10.40"/>
    <timestep time="10.50"/>
    <timestep time="10.60"/>
    <timestep time="10.70"/>
    <timestep time="10.80"/>
    <timestep time="10.90"/>
    <timestep time="11.00"/>
    <timestep time="11.10"/>
    <timestep time="11.20"/>
    <timestep time="11.30"/>
    <timestep time="11.40"/>
    <timestep time="11.50"/>
    <timestep time="11.60"/>
    <timestep time="11.70"/>
    <timestep time="11.80"/>
    <timestep time="11.90"/>
    <timestep time="12.00"/>
    <timestep time="12.10"/>
    <timestep time="12.20"/>
    <timestep time="12.30"/>
    <timestep time="12.40"/>
    <timestep time="12.50"/>
    <timestep time="12.60"/>
    <timestep time="12.70"/>
    <timestep time="12.80"/>
    <timestep time="12.90"/>
    <timestep time="13.00"/>
    <timestep time="13.10"/>
    <timestep time="13.20"/>
    <timestep time="13.30"/>
    <timestep time="13.40"/>
    <timestep time="13.50"/>
    <timestep time="13.60"/>
    <timestep time="13.70"/>
    <timestep time="13.80"/>
    <timestep time="13.90"/>
    <timestep time="14.00"/>
    <timestep time="14.10"/>
    <timestep time="14.20"/>
    <timestep time="14.30"/>
    <timestep time="14.40"/>
    <timestep time="14.50"/>
    <timestep time="14.60"/>
    <timestep time="14.70"/>
    <timestep time="14.80"/>
    <timestep time="14.90"/>
    <timestep time="15.00"/>
    <timestep time="15.10"/>
    <timestep time="15.20"/>
    <timestep time="15.30"/>
    <timestep time="15.40"/>
    <timestep time="15.50"/>
    <timestep time="15.60"/>
    <timestep time="15.70"/>
    <timestep time="15.80"/>
    <timestep time="15.90"/>
    <timestep time="16.00"/>
    <timestep time="16.10"/>
    <timestep time="16.20"/>
    <timestep time="16.30"/>
    <timestep time="16.40"/>
    <timestep time="16.50"/>
    <timestep time="16.60"/>
    <timestep time="16.70"/>
    <timestep time="16.80"/>
    <timestep time="16.90"/>
    <timestep time="17.00"/>
    <timestep time="17.10"/>
    <timestep time="17.20"/>
    <timestep time="17.30"/>
    <timestep time="17.40"/>
    <timestep time="17.50"/>
    <timestep time="17.60"/>
    <timestep time="17.70"/>
    <timestep time="17.80"/>
    <timestep time="17.90"/>
    <timestep time="18.00"/>
    <timestep time="18.10"/>
    <timestep time="18.20"/>
    <timestep time="18.30"/>
    <timestep time="18.40"/>
    <timestep time="18.50"/>
    <timestep time="18.60"/>
    <timestep time="18.70"/>
    <timestep time="18.80"/>
    <timestep time="18.90"/>
    <timestep time="19.00"/>
    <timestep time="19.10"/>
    <timestep time="19.20"/>
    <timestep time="19.30"/>
    <timestep time="19.40"/>
    <timestep time="19.50"/>
    <timestep time="19.60"/>
    <timestep time="19.70"/>
    <timestep time="19.80"/>
    <timestep time="19.90"/>
    <timestep time="20.00"/>
    <timestep time="20.10"/>
    <timestep time="20.20"/>
    <timestep time="20.30"/>
    <timestep time="20.40"/>
    <timestep time="20.50"/>
    <timestep time="20.60"/>
    <timestep time="20.70"/>
    <timestep time="20.80"/>
    <timestep time="20.90"/>
    <timestep time="21.00"/>
    <timestep time="21.10"/>
    <timestep time="21.20"/>
    <timestep time="21.30"/>
    <timestep time="21.40"/>
    <timestep time="21.50"/>
    <timestep time="21.60"/>
    <timestep time="21.70"/>
    <timestep time="21.80"/>
    <timestep time="21.90"/>
    <timestep time="22.00"/>
    <timestep time="22.10"/>
    <timestep time="22.20"/>
    <timestep time="22.30"/>
    <timestep time="22.40"/>
    <timestep time="22.50"/>
    <timestep time="22.60"/>
    <timestep time="22.70"/>
    <timestep time="22.80"/>
    <timestep time="22.90"/>
    <timestep time="23.00"/>
    <timestep time="23.10"/>
    <timestep time="23.20"/>
    <timestep time="23.30"/>
    <timestep time="23.40"/>
    <timestep time="23.50"/>
    <timestep time="23.60"/>
    <timestep time="23.70"/>
    <timestep time="23.80"/>
    <timestep time="23.90"/>
    <timestep time="24.00"/>
    <timestep time="24.10"/>
    <timestep time="24.20"/>
    <timestep time="24.30"/>
    <timestep time="24.40"/>
    <timestep time="24.50"/>
    <timestep time="24.60"/>
    <timestep time="24.70"/>
    <timestep time="24.80"/>
    <timestep time="24.90"/>
    <timestep time="25.00"/>
    <timestep time="25.10"/>
    <timestep time="25.20"/>
    <timestep time="25.30"/>
    <timestep time="25.40"/>
    <timestep time="25.50"/>
    <timestep time="25.60"/>
    <timestep time="25.70"/>
    <timestep time="25.80"/>
    <timestep time="25.90"/>
    <timestep time="26.00"/>
    <timestep time="26.10"/>
    <timestep time="26.20"/>
    <timestep time="26.30"/>
    <timestep time="26.40"/>
    <timestep time="26.50"/>
    <timestep time="26.60"/>
    <timestep time="26.70"/>
    <timestep time="26.80"/>
    <timestep time="26.90"/>
    <timestep time="27.00"/>
    <timestep time="27.10"/>
    <timestep time="27.20"/>
    <timestep time="27.30"/>
    <timestep time="27.40"/>
    <timestep time="27.50"/>
    <timestep time="27.60"/>
    <timestep time="27.70"/>
    <timestep time="27.80"/>
    <timestep time="27.90"/>
    <timestep time="28.00"/>
    <timestep time="28.10"/>
    <timestep time="28.20"/>
    <timestep time="28.30"/>
    <timestep time="28.40"/>
    <timestep time="28.50"/>
    <timestep time="28.60"/>
    <timestep time="28.70"/>
    <timestep time="28.80"/>
    <timestep time="28.90"/>
    <timestep time="29.00"/>
    <timestep time="29.10"/>
    <timestep time="29.20"/>
    <timestep time="29.30"/>
    <timestep time="29.40"/>
    <timestep time="29.50"/>
    <timestep time="29.60"/>
    <timestep time="29.70"/>
    <timestep time="29.80"/>
    <timestep time="29.90"/>
    <timestep time="30.00"/>
    <timestep time="30.10"/>
    <timestep time="30.20"/>
    <timestep time="30.30"/>
    <timestep time="30.40"/>
    <timestep time="30.50"/>
    <timestep time="30.60"/>
    <timestep time="30.70"/>
    <timestep time="30.80"/>
    <timestep time="30.90"/>
    <timestep time="31.00"/>
    <timestep time="31.10"/>
    <timestep time="31.20"/>
    <timestep time="31.30"/>
    <timestep time="31.40"/>
    <timestep time="31.50"/>
    <timestep time="31.60"/>
    <timestep time="31.70"/>
    <timestep time="31.80"/>
    <timestep time="31.90"/>
    <timestep time="32.00"/>
    <timestep time="32.10"/>
    <timestep time="32.20"/>
    <timestep time="32.30"/>
    <timestep time="32.40"/>
    <timestep time="32.50"/>
    <timestep time="32.60"/>
    <timestep time="32.70"/>
    <timestep time="32.80"/>
    <timestep time="32.90"/>
    <timestep time="33.00"/>
    <timestep time="33.10"/>
    <timestep time="33.20"/>
    <timestep time="33.30"/>
    <timestep time="33.40"/>
    <timestep time="33.50"/>
    <timestep time="33.60"/>
    <timestep time="33.70"/>
    <timestep time="33.80"/>
    <timestep time="33.90"/>
    <timestep time="34.00"/>
    <timestep time="34.10"/>
    <timestep time="34.20"/>
    <timestep time="34.30"/>
    <timestep time="34.40"/>
    <timestep time="34.50"/>
    <timestep time="34.60"/>
    <timestep time="34.70"/>
    <timestep time="34.80"/>
    <timestep time="34.90"/>
    <timestep time="35.00"/>
    <timestep time="35.10"/>
    <timestep time="35.20"/>
    <timestep time="35.30"/>
    <timestep time="35.40"/>
    <timestep time="35.50"/>
    <timestep time="35.60"/>
    <timestep time="35.70"/>
    <timestep time="35.80"/>
    <timestep time="35.90"/>
    <timestep time="36.00"/>
    <timestep time="36.10"/>
    <timestep time="36.20"/>
    <timestep time="36.30"/>
    <timestep time="36.40"/>
    <timestep time="36.50"/>
    <timestep time="36.60"/>
    <timestep time="36.70"/>
    <timestep time="36.80"/>
    <timestep time="36.90"/>
    <timestep time="37.00"/>
    <timestep time="37.10"/>
    <timestep time="37.20"/>
    <timestep time="37.30"/>
    <timestep time="37.40"/>
    <timestep time="37.50"/>
    <timestep time="37.60"/>
    <timestep time="37.70"/>
    <timestep time="37.80"/>
    <timestep time="37.90"/>
    <timestep time="38.00"/>
    <timestep time="38.10"/>
    <timestep time="38.20"/>
    <timestep time="38.30"/>
    <timestep time="38.40"/>
    <timestep time="38.50"/>
    <timestep time="38.60"/>
    <timestep time="38.70"/>
    <timestep time="38.80"/>
    <timestep time="38.90"/>
    <timestep time="39.00"/>
    <timestep time="39.10"/>
    <timestep time="39.20"/>
    <timestep time="39.30"/>
    <timestep time="39.40"/>
    <timestep time="39.50"/>
    <timestep time="39.60"/>
    <timestep time="39.70"/>
    <timestep time="39.80"/>
    <timestep time="39.90"/>
    <timestep time="40.00">
        <vehicle id="car_1" x="9.54" y="165.54" angle="65.46" type="car" speed="28.00" pos="5.10" lane="125108277_1" slope="0.00" signals="0" acceleration="0.00"/>
    </timestep>
    <timestep time="40.10">
        <vehicle id="car_1" x="12.10" y="166.71" angle="65.46" type="car" speed="28.20" pos="7.92" lane="125108277_1" slope="0.00" signals="0" acceleration="1.96"/>
    </timestep>
    <timestep time="40.20">
        <vehicle id="car_1" x="14.69" y="167.89" angle="65.46" type="car" speed="28.44" pos="10.76" lane="125108277_1" slope="0.00" signals="0" acceleration="2.48"/>
    </timestep>
    <timestep time="40.30">
        <vehicle id="car_1" x="17.36" y="168.88" angle="67.83" type="car" speed="28.58" pos="13.62" lane="125108277_1" slope="0.00" signals="0" acceleration="1.38"/>
    </timestep>
    <timestep time="40.40">
        <vehicle id="car_1" x="20.07" y="169.88" angle="69.80" type="car" speed="28.82" pos="16.50" lane="125108277_1" slope="0.00" signals="0" acceleration="2.38"/>
    </timestep>
    <timestep time="40.50">
        <vehicle id="car_1" x="22.79" y="170.88" angle="69.80" type="car" speed="28.97" pos="19.40" lane="125108277_1" slope="0.00" signals="0" acceleration="1.44"/>
    </timestep>
    <timestep time="40.60">
        <vehicle id="car_1" x="25.52" y="171.88" angle="69.80" type="car" speed="29.11" pos="22.31" lane="125108277_1" slope="0.00" signals="0" acceleration="1.41"/>
    </timestep>
    <timestep time="40.70">
        <vehicle id="car_1" x="28.27" y="172.89" angle="69.80" type="car" speed="29.31" pos="25.24" lane="125108277_1" slope="0.00" signals="0" acceleration="2.07"/>
    </timestep>
    <timestep time="40.80">
        <vehicle id="car_1" x="31.02" y="173.91" angle="69.80" type="car" speed="29.34" pos="28.18" lane="125108277_1" slope="0.00" signals="0" acceleration="0.29"/>
    </timestep>
    <timestep time="40.90">
        <vehicle id="car_1" x="33.78" y="174.92" angle="69.80" type="car" speed="29.45" pos="31.12" lane="125108277_1" slope="0.00" signals="0" acceleration="1.05"/>
    </timestep>
    <timestep time="41.00">
        <vehicle id="car_1" x="36.54" y="175.94" angle="69.80" type="car" speed="29.39" pos="34.06" lane="125108277_1" slope="0.00" signals="0" acceleration="-0.55"/>
    </timestep>
    <timestep time="41.10">
        <vehicle id="car_1" x="39.31" y="176.90" angle="70.40" type="car" speed="29.33" pos="36.99" lane="125108277_1" slope="0.00" signals="0" acceleration="-0.63"/>
    </timestep>
    <timestep time="41.20">
        <vehicle id="car_1" x="42.10" y="177.79" angle="71.84" type="car" speed="29.36" pos="39.93" lane="125108277_1" slope="0.00" signals="0" acceleration="0.33"/>
    </timestep>
    <timestep time="41.30">
        <vehicle id="car_1" x="44.90" y="178.69" angle="72.26" type="car" speed="29.45" pos="42.87" lane="125108277_1" slope="0.00" signals="0" acceleration="0.84"/>
    </timestep>
    <timestep time="41.40">
        <vehicle id="car_1" x="47.70" y="179.59" angle="72.26" type="car" speed="29.39" pos="45.81" lane="125108277_1" slope="0.00" signals="0" acceleration="-0.58"/>
    </timestep>
    <timestep time="41.50">
        <vehicle id="car_1" x="50.50" y="180.48" angle="72.26" type="car" speed="29.44" pos="48.76" lane="125108277_1" slope="0.00" signals="0" acceleration="0.48"/>
    </timestep>
    <timestep time="41.60">
        <vehicle id="car_1" x="53.31" y="181.38" angle="72.26" type="car" speed="29.43" pos="51.70" lane="125108277_1" slope="0.00" signals="0" acceleration="-0.01"/>
    </timestep>
    <timestep time="41.70">
        <vehicle id="car_1" x="56.10" y="182.27" angle="72.26" type="car" speed="29.36" pos="54.64" lane="125108277_1" slope="0.00" signals="0" acceleration="-0.72"/>
    </timestep>
    <timestep time="41.80">
        <vehicle id="car_1" x="58.90" y="183.17" angle="72.26" type="car" speed="29.37" pos="57.57" lane="125108277_1" slope="0.00" signals="0" acceleration="0.03"/>
    </timestep>
    <timestep time="41.90">
        <vehicle id="car_1" x="61.72" y="183.99" angle="73.11" type="car" speed="29.40" pos="60.51" lane="125108277_1" slope="0.00" signals="0" acceleration="0.35"/>
    </timestep>
    <timestep time="42.00">
        <vehicle id="car_1" x="64.55" y="184.78" angle="74.35" type="car" speed="29.42" pos="63.45" lane="125108277_1" slope="0.00" signals="0" acceleration="0.20"/>
    </timestep>
    <timestep time="42.10">
        <vehicle id="car_1" x="67.38" y="185.58" angle="74.37" type="car" speed="29.37" pos="66.39" lane="125108277_1" slope="0.00" signals="0" acceleration="-0.52"/>
    </timestep>
    <timestep time="42.20">
        <vehicle id="car_1" x="70.21" y="186.37" angle="74.37" type="car" speed="29.42" pos="69.33" lane="125108277_1" slope="0.00" signals="0" acceleration="0.48"/>
    </timestep>
    <timestep time="42.30">
        <vehicle id="car_1" x="73.04" y="187.16" angle="74.37" type="car" speed="29.44" pos="72.28" lane="125108277_1" slope="0.00" signals="0" acceleration="0.19"/>
    </timestep>
    <timestep time="42.40">
        <vehicle id="car_1" x="75.86" y="187.95" angle="74.37" type="car" speed="29.34" pos="75.21" lane="125108277_1" slope="0.00" signals="0" acceleration="-0.99"/>
    </timestep>
    <timestep time="42.50">
        <vehicle id="car_1" x="78.69" y="188.74" angle="74.37" type="car" speed="29.33" pos="78.14" lane="125108277_1" slope="0.00" signals="0" acceleration="-0.04"/>
    </timestep>
    <timestep time="42.60">
        <vehicle id="car_1" x="81.51" y="189.53" angle="74.37" type="car" speed="29.32" pos="81.08" lane="125108277_1" slope="0.00" signals="0" acceleration="-0.15"/>
    </timestep>
    <timestep time="42.70">
        <vehicle id="car_1" x="84.34" y="190.32" angle="74.37" type="car" speed="29.35" pos="84.01" lane="125108277_1" slope="0.00" signals="0" acceleration="0.32"/>
    </timestep>
    <timestep time="42.80">
        <vehicle id="car_1" x="87.16" y="191.11" angle="74.37" type="car" speed="29.32" pos="86.94" lane="125108277_1" slope="0.00" signals="0" acceleration="-0.29"/>
    </timestep>
    <timestep time="42.90">
        <vehicle id="car_1" x="90.03" y="191.70" angle="76.79" type="car" speed="29.41" pos="89.88" lane="125108277_1" slope="0.00" signals="0" acceleration="0.86"/>
    </timestep>
    <timestep time="43.00">
        <vehicle id="car_1" x="92.93" y="192.18" angle="80.47" type="car" speed="29.40" pos="92.82" lane="125108277_1" slope="0.00" signals="0" acceleration="-0.06"/>
    </timestep>
    <timestep time="43.10">
        <vehicle id="car_1" x="95.84" y="192.65" angle="80.62" type="car" speed="29.42" pos="95.77" lane="125108277_1" slope="0.00" signals="0" acceleration="0.23"/>
    </timestep>
    <timestep time="43.20">
        <vehicle id="car_1" x="98.73" y="193.13" angle="80.62" type="car" speed="29.35" pos="98.70" lane="125108277_1" slope="0.00" signals="0" acceleration="-0.72"/>
    </timestep>
    <timestep time="43.30">
        <vehicle id="car_1" x="101.62" y="193.61" angle="80.62" type="car" speed="29.33" pos="101.63" lane="125108277_1" slope="0.00" signals="0" acceleration="-0.20"/>
    </timestep>
    <timestep time="43.40">
        <vehicle id="car_1" x="104.52" y="194.09" angle="80.62" type="car" speed="29.38" pos="104.57" lane="125108277_1" slope="0.00" signals="0" acceleration="0.46"/>
    </timestep>
    <timestep time="43.50">
        <vehicle id="car_1" x="107.42" y="194.57" angle="80.62" type="car" speed="29.43" pos="107.52" lane="125108277_1" slope="0.00" signals="0" acceleration="0.50"/>
    </timestep>
    <timestep time="43.60">
        <vehicle id="car_1" x="110.32" y="195.05" angle="80.62" type="car" speed="29.40" pos="110.46" lane="125108277_1" slope="0.00" signals="0" acceleration="-0.24"/>
    </timestep>
    <timestep time="43.70">
        <vehicle id="car_1" x="113.22" y="195.53" angle="80.62" type="car" speed="29.36" pos="113.39" lane="125108277_1" slope="0.00" signals="0" acceleration="-0.47"/>
    </timestep>
    <timestep time="43.80">
        <vehicle id="car_1" x="116.12" y="196.00" angle="80.62" type="car" speed="29.40" pos="116.33" lane="125108277_1" slope="0.00" signals="0" acceleration="0.46"/>
    </timestep>
    <timestep time="43.90">
        <vehicle id="car_1" x="119.03" y="196.41" angle="81.51" type="car" speed="29.39" pos="119.27" lane="125108277_1" slope="0.00" signals="0" acceleration="-0.15"/>
    </timestep>
    <timestep time="44.00">
        <vehicle id="car_1" x="121.93" y="196.80" angle="82.33" type="car" speed="29.36" pos="122.21" lane="125108277_1" slope="0.00" signals="0" acceleration="-0.27"/>
    </timestep>
    <timestep time="44.10">
        <vehicle id="car_1" x="124.84" y="197.19" angle="82.33" type="car" speed="29.34" pos="125.14" lane="125108277_1" slope="0.00" signals="0" acceleration="-0.19"/>
    </timestep>
    <timestep time="44.20">
        <vehicle id="car_1" x="127.75" y="197.58" angle="82.33" type="car" speed="29.35" pos="128.07" lane="125108277_1" slope="0.00" signals="0" acceleration="0.09"/>
    </timestep>
    <timestep time="44.30">
        <vehicle id="car_1" x="130.66" y="197.97" angle="82.33" type="car" speed="29.38" pos="131.01" lane="125108277_1" slope="0.00" signals="0" acceleration="0.29"/>
    </timestep>
    <timestep time="44.40">
        <vehicle id="car_1" x="133.57" y="198.36" angle="82.33" type="car" speed="29.43" pos="133.96" lane="125108277_1" slope="0.00" signals="0" acceleration="0.54"/>
    </timestep>
    <timestep time="44.50">
        <vehicle id="car_1" x="136.49" y="198.76" angle="82.33" type="car" speed="29.43" pos="136.90" lane="125108277_1" slope="0.00" signals="0" acceleration="-0.07"/>
    </timestep>
    <timestep time="44.60">
        <vehicle id="car_1" x="139.40" y="199.15" angle="82.33" type="car" speed="29.38" pos="139.84" lane="125108277_1" slope="0.00" signals="0" acceleration="-0.46"/>
    </timestep>
    <timestep time="44.70">
        <vehicle id="car_1" x="142.31" y="199.54" angle="82.33" type="car" speed="29.40" pos="142.78" lane="125108277_1" slope="0.00" signals="0" acceleration="0.22"/>
    </timestep>
    <timestep time="44.80">
        <vehicle id="car_1" x="145.22" y="199.93" angle="82.33" type="car" speed="29.37" pos="145.71" lane="125108277_1" slope="0.00" signals="0" acceleration="-0.36"/>
    </timestep>
    <timestep time="44.90">
        <vehicle id="car_1" x="148.14" y="200.21" angle="83.69" type="car" speed="29.33" pos="148.65" lane="125108277_1" slope="0.00" signals="0" acceleration="-0.35"/>
    </timestep>
    <timestep time="45.00">
        <vehicle id="car_1" x="151.07" y="200.33" angle="86.75" type="car" speed="29.40" pos="151.59" lane="125108277_1" slope="0.00" signals="0" acceleration="0.64"/>
    </timestep>
    <timestep time="45.10">
        <vehicle id="car_1" x="154.01" y="200.46" angle="87.55" type="car" speed="29.44" pos="154.53" lane="125108277_1" slope="0.00" signals="0" acceleration="0.47"/>
    </timestep>
    <timestep time="45.20">
        <vehicle id="car_1" x="156.95" y="200.58" angle="87.55" type="car" speed="29.39" pos="157.47" lane="125108277_1" slope="0.00" signals="0" acceleration="-0.52"/>
    </timestep>
    <timestep time="45.30">
        <vehicle id="car_1" x="159.88" y="200.71" angle="87.55" type="car" speed="29.41" pos="160.41" lane="125108277_1" slope="0.00" signals="0" acceleration="0.17"/>
    </timestep>
    <timestep time="45.40">
        <vehicle id="car_1" x="162.82" y="200.83" angle="87.55" type="car" speed="29.39" pos="163.35" lane="125108277_1" slope="0.00" signals="0" acceleration="-0.22"/>
    </timestep>
    <timestep time="45.50">
        <vehicle id="car_1" x="165.75" y="200.96" angle="87.55" type="car" speed="29.35" pos="166.28" lane="125108277_1" slope="0.00" signals="0" acceleration="-0.31"/>
    </timestep>
    <timestep time="45.60">
        <vehicle id="car_1" x="168.69" y="201.09" angle="87.55" type="car" speed="29.44" pos="169.23" lane="125108277_1" slope="0.00" signals="0" acceleration="0.81"/>
    </timestep>
    <timestep time="45.70">
        <vehicle id="car_1" x="171.62" y="201.03" angle="89.57" type="car" speed="29.37" pos="172.17" lane="125108277_1" slope="0.00" signals="0" acceleration="-0.63"/>
    </timestep>
    <timestep time="45.80">
        <vehicle id="car_1" x="174.56" y="200.96" angle="91.45" type="car" speed="29.37" pos="175.10" lane="125108277_1" slope="0.00" signals="0" acceleration="-0.02"/>
    </timestep>
    <timestep time="45.90">
        <vehicle id="car_1" x="177.50" y="200.89" angle="91.45" type="car" speed="29.43" pos="178.05" lane="125108277_1" slope="0.00" signals="0" acceleration="0.56"/>
    </timestep>
    <timestep time="46.00">
        <vehicle id="car_1" x="180.44" y="200.81" angle="91.45" type="car" speed="29.44" pos="180.99" lane="125108277_1" slope="0.00" signals="0" acceleration="0.17"/>
    </timestep>
    <timestep time="46.10">
        <vehicle id="car_1" x="183.37" y="200.74" angle="91.45" type="car" speed="29.36" pos="183.93" lane="125108277_1" slope="0.00" signals="0" acceleration="-0.84"/>
    </timestep>
    <timestep time="46.20">
        <vehicle id="car_1" x="186.30" y="200.66" angle="91.45" type="car" speed="29.32" pos="186.86" lane="125108277_1" slope="0.00" signals="0" acceleration="-0.41"/>
    </timestep>
    <timestep time="46.30">
        <vehicle id="car_1" x="189.24" y="200.59" angle="91.45" type="car" speed="29.38" pos="189.79" lane="125108277_1" slope="0.00" signals="0" acceleration="0.60"/>
    </timestep>
    <timestep time="46.40">
        <vehicle id="car_1" x="192.17" y="200.52" angle="91.45" type="car" speed="29.37" pos="192.73" lane="125108277_1" slope="0.00" signals="0" acceleration="-0.10"/>
    </timestep>
    <timestep time="46.50">
        <vehicle id="car_1" x="195.11" y="200.44" angle="91.45" type="car" speed="29.35" pos="195.67" lane="125108277_1" slope="0.00" signals="0" acceleration="-0.19"/>
    </timestep>
    <timestep time="46.60">
        <vehicle id="car_1" x="198.05" y="200.37" angle="91.45" type="car" speed="29.42" pos="198.61" lane="125108277_1" slope="0.00" signals="0" acceleration="0.73"/>
    </timestep>
    <timestep time="46.70">
        <vehicle id="car_1" x="200.98" y="200.29" angle="91.45" type="car" speed="29.41" pos="201.55" lane="125108277_1" slope="0.00" signals="0" acceleration="-0.16"/>
    </timestep>
    <timestep time="46.80">
        <vehicle id="car_1" x="203.92" y="200.22" angle="91.45" type="car" speed="29.34" pos="204.48" lane="125108277_1" slope="0.00" signals="0" acceleration="-0.62"/>
    </timestep>
    <timestep time="46.90">
        <vehicle id="car_1" x="206.86" y="200.15" angle="91.45" type="car" speed="29.42" pos="207.43" lane="125108277_1" slope="0.00" signals="0" acceleration="0.76"/>
    </timestep>
    <timestep time="47.00">
        <vehicle id="car_1" x="209.79" y="200.07" angle="91.45" type="car" speed="29.33" pos="210.36" lane="125108277_1" slope="0.00" signals="0" acceleration="-0.85"/>
    </timestep>
    <timestep time="47.10">
        <vehicle id="car_1" x="212.73" y="200.00" angle="91.45" type="car" speed="29.42" pos="213.30" lane="125108277_1" slope="0.00" signals="0" acceleration="0.89"/>
    </timestep>
    <timestep time="47.20">
        <vehicle id="car_1" x="215.67" y="199.92" angle="91.45" type="car" speed="29.40" pos="216.24" lane="125108277_1" slope="0.00" signals="0" acceleration="-0.20"/>
    </timestep>
    <timestep time="47.30">
        <vehicle id="car_1" x="218.60" y="199.85" angle="91.45" type="car" speed="29.39" pos="219.18" lane="125108277_1" slope="0.00" signals="0" acceleration="-0.15"/>
    </timestep>
    <timestep time="47.40">
        <vehicle id="car_1" x="221.54" y="199.77" angle="91.45" type="car" speed="29.41" pos="222.12" lane="125108277_1" slope="0.00" signals="0" acceleration="0.19"/>
    </timestep>
    <timestep time="47.50">
        <vehicle id="car_1" x="224.48" y="199.70" angle="91.45" type="car" speed="29.43" pos="225.06" lane="125108277_1" slope="0.00" signals="0" acceleration="0.18"/>
    </timestep>
    <timestep time="47.60">
        <vehicle id="car_1" x="227.42" y="199.63" angle="91.45" type="car" speed="29.37" pos="228.00" lane="125108277_1" slope="0.00" signals="0" acceleration="-0.53"/>
    </timestep>
    <timestep time="47.70">